! Touchstone file exported from HFSS 2023.1.0
!        File:           E:/OneDrive/Studium_Master/4__Masterarbeit/Paper/Fitting_Final_Paper/Paper_Example_Inductor.aedt
!        Generated:      9:55:06  Jan 21, 2025
!        Design:         HFSSDesign1
!        Project:        Paper_Example_Inductor
!        Setup:          Setup1
!        Solution:       Sweep_Log
!
! Variables:
!        BEOL_h = 0.4um
!        Current = 100mA
!        N = 7
!        Polyimide_h = 86um
!        Sub_h = 750um
!        core_dx = 14.85um
!        core_dy = 19.8um
!        feed_l = 750um
!        h_6S = 25um
!        h_6T = 25um
!        h_core = 6um
!        inductor_length = 3789.6um
!        inductor_width = 720um
!        iso = 5um
!        pad_l = 60um
!        port_l = 60um
!        region_l = 20.72mm
!        region_w = 23.7896mm
!        ring_sep = 100um
!        ring_w = 100um
!        sf = 0.9
!        turn_s = 100um
!        via_h = 16um
!        via_off = 5um
!        winding_l = 600um
!        winding_w = 450um
!        x_offset = 0m
!        y_offset = 0m
!        z_offset = 6mm
!
# GHz S MA R 50.000000
! Terminal data exported
! Port[1] = P1
! Port[2] = P2
0                              0.000164146977112978 0                0.999835780125977 0                0.999835780235344 0                0.000164146899351181 0                
! Gamma         50               0                50               0                
! Port Impedance         50               0                50               0                
1E-06                          0.000167824352847115 -11.9012393069629 0.999835781233568 -0.00213725132514409 0.999835781233558 -0.00213725132799469 0.000167818830738641 -11.8925480999063 
! Gamma         0                0                0                0                
! Port Impedance         50               0                50               0                
1.0077048141361E-06            0.000167762362682803 -11.7903207229082 0.999835781242852 -0.00211951012077394 0.999835781234108 -0.00211950794350192 0.000167756929638525 -11.7817005602954 
! Gamma         0                0                0                0                
! Port Impedance         50               0                50               0                
1.01546899243308E-06           0.000167701271639579 -11.6800212160554 0.999835781251932 -0.00210189633277737 0.999835781234663 -0.00210189199460919 0.000167695926408676 -11.6714717660144 
! Gamma         0                0                0                0                
! Port Impedance         50               0                50               0                
1.02329299228075E-06           0.000167641066383468 -11.5703366190911 0.99983578126081 -0.0020844089825989 0.999835781235224 -0.00208440250306889 0.000167635807732919 -11.561857549691 
! Gamma         0                0                0                0                
! Port Impedance         50               0                50               0                
1.03117727459306E-06           0.000167581733762893 -11.46126276873  0.999835781269488 -0.00206704710049019 0.999835781235792 -0.00206703849945117 0.000167576560477268 -11.4528537480297 
! Gamma         0                0                0                0                
! Port Impedance         50               0                50               0                
1.03912230383517E-06           0.000167523260806452 -11.3527955064407 0.999835781277968 -0.00204980972548401 0.999835781236365 -0.00204979902311827 0.000167518171687689 -11.3444562025363 
! Gamma         0                0                0                0                
! Port Impedance         50               0                50               0                
1.0471285480509E-06            0.000167465634720709 -11.2449306791603 0.999835781286252 -0.00203269590536917 0.999835781236944 -0.00203268312219953 0.000167460628587905 -11.2366607602309 
! Gamma         0                0                0                0                
! Port Impedance         50               0                50               0                
1.05519647889024E-06           0.000167408842888009 -11.1376641400034 0.999835781294342 -0.00201570469666691 0.99983578123753 -0.00201568985356807 0.00016740391857721 -11.1294632743557 
! Gamma         0                0                0                0                
! Port Impedance         50               0                50               0                
1.06332657163716E-06           0.000167352872864317 -11.0309917489621 0.999835781302241 -0.00199883516460835 0.999835781238122 -0.0019988182828185 0.000167348029228308 -11.0228596050732 
! Gamma         0                0                0                0                
! Port Impedance         50               0                50               0                
1.07151930523761E-06           0.000167297712377084 -10.9249093735982 0.999835781309948 -0.00198208638311331 0.99983578123872 -0.00198206748424592 0.00016729294828518 -10.916845620158 
! Gamma         0                0                0                0                
! Port Impedance         50               0                50               0                
1.07977516232771E-06           0.000167243349323124 -10.8194128897291 0.999835781317468 -0.00196545743477042 0.999835781239325 -0.00196543654082629 0.000167238663660968 -10.8114171956804 
! Gamma         0                0                0                0                
! Port Impedance         50               0                50               0                
1.08809462926223E-06           0.000167189771766527 -10.7144981821057 0.999835781324801 -0.00194894741081828 0.999835781239936 -0.00194892454419785 0.000167185163435886 -10.7065702166836 
! Gamma         0                0                0                0                
! Port Impedance         50               0                50               0                
1.09647819614319E-06           0.000167136967936589 -10.610161145084 0.999835781331949 -0.00193255541112831 0.999835781240554 -0.00193253059464418 0.00016713243585515 -10.6023005778537 
! Gamma         0                0                0                0                
! Port Impedance         50               0                50               0                
1.10492635684876E-06           0.00016708492622576 -10.5063976832906 0.999835781338914 -0.00191628054418856 0.999835781241178 -0.00191625380107833 0.000167080469326934 -10.498604184184 
! Gamma         0                0                0                0                
! Port Impedance         50               0                50               0                
1.11343960906236E-06           0.000167033635187628 -10.4032037122812 0.999835781345698 -0.00190012192708904 0.999835781241809 -0.00190009328102834 0.000167029252420351 -10.3954769516323 
! Gamma         0                0                0                0                
! Port Impedance         50               0                50               0                
1.12201845430196E-06           0.000166983083534913 -10.3005751591939 0.999835781352301 -0.00188407868550836 0.999835781242446 -0.00188404816062419 0.00016697877386345 -10.2929148077729 
! Gamma         0                0                0                0                
! Port Impedance         50               0                50               0                
1.13066339794964E-06           0.000166933260137492 -10.198507963397 0.999835781358727 -0.00186814995370176 0.999835781243091 -0.00186811757458606 0.000166929022541243 -10.190913692443 
! Gamma         0                0                0                0                
! Port Impedance         50               0                50               0                
1.13937494928134E-06           0.000166884154020444 -10.0969980771311 0.999835781364975 -0.00185233487449046 0.999835781243743 -0.00185230066621402 0.000166879987493753 -10.089469558384 
! Gamma         0                0                0                0                
! Port Impedance         50               0                50               0                
1.14815362149688E-06           0.00016683575436212 -9.99604146614657 0.999835781371048 -0.00183663259925254 0.999835781244401 -0.00183659658737908 0.000166831657914084 -9.98857837187697 
! Gamma         0                0                0                0                
! Port Impedance         50               0                50               0                
1.15699993175021E-06           0.000166788050492235 -9.89563411033566 0.999835781376948 -0.001821042287915 0.999835781245066 -0.00182100449851569 0.000166784023146517 -9.88823611337437 
! Gamma         0                0                0                0                
! Port Impedance         50               0                50               0                
1.16591440117983E-06           0.000166741031889984 -9.79577200436144 0.999835781382675 -0.00180556310894763 0.999835781245739 -0.00180552356861574 0.000166737072684626 -9.78843877812733 
! Gamma         0                0                0                0                
! Port Impedance         50               0                50               0                
1.17489755493953E-06           0.000166694688182182 -9.6964511582815 0.99983578138823 -0.00179019423935797 0.999835781246418 -0.00179015297522391 0.000166690796169418 -9.68918237680824 
! Gamma         0                0                0                0                
! Port Impedance         50               0                50               0                
1.1839499222293E-06            0.000166649009141424 -9.59766759816862 0.999835781393616 -0.00177493486468804 0.999835781247105 -0.00177489190443468 0.000166645183387503 -9.59046293613029 
! Gamma         0                0                0                0                
! Port Impedance         50               0                50               0                
1.19307203632653E-06           0.000166603984684275 -9.49941736672743 0.999835781398834 -0.00175978417901234 0.999835781247799 -0.00175973955089064 0.000166600224269274 -9.49227649946294 
! Gamma         0                0                0                0                
! Port Impedance         50               0                50               0                
1.20226443461741E-06           0.000166559604869476 -9.40169652390835 0.999835781403884 -0.00174474138493761 0.999835781248501 -0.00174469511778254 0.000166555908887124 -9.39461912744469 
! Gamma         0                0                0                0                
! Port Impedance         50               0                50               0                
1.21152765862859E-06           0.000166515859896177 -9.30450114751846 0.999835781408768 -0.00172980569360389 0.99983578124921 -0.00172975781685071 0.000166512227453679 -9.29748689859285 
! Gamma         0                0                0                0                
! Port Impedance         50               0                50               0                
1.22086225405907E-06           0.000166472740102198 -9.20782733383003 0.999835781413487 -0.00171497632468742 0.999835781249926 -0.00171492686838822 0.000166469170320054 -9.20087590991086 
! Gamma         0                0                0                0                
! Port Impedance         50               0                50               0                
1.23026877081238E-06           0.000166430235962303 -9.11167119818628 0.999835781418042 -0.00170025250640484 0.99983578125065 -0.00170020150124547 0.000166426727974139 -9.10478227749301 
! Gamma         0                0                0                0                
! Port Impedance         50               0                50               0                
1.23974776302894E-06           0.000166388338086506 -9.01602887560602 0.999835781422435 -0.00168563347551925 0.999835781251381 -0.00168558095283657 0.000166384891038901 -9.00920213712789 
! Gamma         0                0                0                0                
! Port Impedance         50               0                50               0                
1.24929978911873E-06           0.000166347037218398 -8.92089652138598 0.999835781426666 -0.00167111847734777 0.999835781252119 -0.0016710644691472 0.000166343650270713 -8.91413164489969 
! Gamma         0                0                0                0                
! Port Impedance         50               0                50               0                
1.25892541179417E-06           0.000166306324233499 -8.82627031170239 0.999835781430736 -0.00165670676577083 0.999835781252866 -0.0016566513047443 0.000166302996557707 -8.81956697778865 
! Gamma         0                0                0                0                
! Port Impedance         50               0                50               0                
1.26862519810326E-06           0.000166266190137629 -8.73214644421148 0.999835781434647 -0.00164239760324311 0.99983578125362 -0.00164234072278735 0.00016626292091815 -8.72550433427046 
! Gamma         0                0                0                0                
! Port Impedance         50               0                50               0                
1.27839971946302E-06           0.000166226626065306 -8.63852113864886 0.999835781438398 -0.00162819026080622 0.999835781254382 -0.00162813199504137 0.000166223414498842 -8.63193993491462 
! Gamma         0                0                0                0                
! Port Impedance         50               0                50               0                
1.28824955169313E-06           0.000166187623278171 -8.54539063742928 0.999835781441992 -0.00161408401810309 0.999835781255151 -0.00161402440189171 0.000166184468573539 -8.53887002298307 
! Gamma         0                0                0                0                
! Port Impedance         50               0                50               0                
1.29817527504985E-06           0.00016614917316343 -8.45275120624609 0.999835781445429 -0.00160007816339418 0.999835781255928 -0.00160001723236064 0.000166146074541403 -8.44629086502866 
! Gamma         0                0                0                0                
! Port Impedance         50               0                50               0                
1.30817747426019E-06           0.00016611126723232 -8.36059913467123 0.99983578144871 -0.00158617199357545 0.999835781256713 -0.00158610978412567 0.000166108223925467 -8.35419875149403 
! Gamma         0                0                0                0                
! Port Impedance         50               0                50               0                
1.31825673855641E-06           0.000166073897118608 -8.26893073675517 0.999835781451836 -0.00157236481419811 0.999835781257506 -0.00157230136353969 0.000166070908371132 -8.26258999731059 
! Gamma         0                0                0                0                
! Port Impedance         50               0                50               0                
1.32841366171065E-06           0.000166037054577101 -8.17774235162929 0.999835781454807 -0.00155865593949038 0.999835781258307 -0.00155859128565313 0.000166034119644683 -8.17146094249978 
! Gamma         0                0                0                0                
! Port Impedance         50               0                50               0                
1.33864884206999E-06           0.000166000731482187 -8.0870303441079 0.999835781457624 -0.00154504469238089 0.999835781259116 -0.00154497887423774 0.000165997849631832 -8.08080795277414 
! Gamma         0                0                0                0                
! Port Impedance         50               0                50               0                
1.34896288259165E-06           0.0001659649198264 -7.99679110529324 0.999835781460287 -0.00153153040452422 0.999835781259932 -0.00153146346181255 0.000165962090336281 -7.9906274201413 
! Gamma         0                0                0                0                
! Port Impedance         50               0                50               0                
1.35935639087853E-06           0.000165929611719004 -7.9070210531819 0.999835781462799 -0.00151811241632825 0.999835781260757 -0.0015180443896716 0.000165926833878311 -7.90091576350932 
! Gamma         0                0                0                0                
! Port Impedance         50               0                50               0                
1.36982997921497E-06           0.000165894799384608 -7.81771663327391 0.999835781465158 -0.00150479007698355 0.999835781261589 -0.00150472100791379 0.000165892072493395 -7.81166942929487 
! Gamma         0                0                0                0                
! Port Impedance         50               0                50               0                
1.38038426460288E-06           0.000165860475161795 -7.72887431918392 0.999835781467366 -0.00149156274449469 0.99983578126243 -0.00149149267547456 0.00016585779853083 -7.72288489203335 
! Gamma         0                0                0                0                
! Port Impedance         50               0                50               0                
1.39101986879805E-06           0.000165826631501787 -7.64049061325605 0.999835781469422 -0.00147842978571371 0.999835781263278 -0.00147835876015981 0.000165824004452406 -7.63455865499284 
! Gamma         0                0                0                0                
! Port Impedance         50               0                50               0                
1.40173741834677E-06           0.00016579326096712 -7.55256204718204 0.999835781471329 -0.00146539057637554 0.999835781264135 -0.00146531863868179 0.000165790682831077 -7.54668725079116 
! Gamma         0                0                0                0                
! Port Impedance         50               0                50               0                
1.41253754462275E-06           0.000165760356230354 -7.46508518262285 0.999835781473086 -0.00145244450113566 0.999835781265   -0.00145237169669711 0.000165757826349681 -7.4592672420166 
! Gamma         0                0                0                0                
! Port Impedance         50               0                50               0                
1.42342088386434E-06           0.000165727910072806 -7.37805661183427 0.999835781474693 -0.00143959095360973 0.999835781265872 -0.0014395173288469 0.000165725427799662 -7.37229522185251 
! Gamma         0                0                0                0                
! Port Impedance         50               0                50               0                
1.43438807721197E-06           0.000165695915383296 -7.29147295829752 0.999835781476151 -0.00142682933641556 0.999835781266752 -0.00142675493879921 0.000165693480079829 -7.285767814707  
! Gamma         0                0                0                0                
! Port Impedance         50               0                50               0                
1.44543977074593E-06           0.000165664365156932 -7.20533087735418 0.999835781477461 -0.00141415906121721 0.99983578126764 -0.00141408393929356 0.000165661976195135 -7.19968167684681 
! Gamma         0                0                0                0                
! Port Impedance         50               0                50               0                
1.45657661552446E-06           0.000165633252493906 -7.11962705684613 0.999835781478622 -0.00140157954877133 0.999835781268537 -0.00140150375218774 0.000165630909255482 -7.11403349703643 
! Gamma         0                0                0                0                
! Port Impedance         50               0                50               0                
1.46779926762207E-06           0.000165602570598327 -7.03435821776148 0.999835781479635 -0.00138909022897584 0.999835781269441 -0.00138901380850697 0.000165600272474544 -7.02881999718299 
! Gamma         0                0                0                0                
! Port Impedance         50               0                50               0                
1.47910838816821E-06           0.000165572312777064 -6.94952111488597 0.9998357814805  -0.00137669054092088 0.999835781270353 -0.00137661354849534 0.00016557005916862 -6.9440379329868 
! Gamma         0                0                0                0                
! Port Impedance         50               0                50               0                
1.4905046433862E-06            0.000165542472438624 -6.86511253746083 0.999835781481218 -0.00136437993294218 0.999835781271273 -0.00136430242166964 0.000165540262755511 -6.8596840945982 
! Gamma         0                0                0                0                
! Port Impedance         50               0                50               0                
1.50198870463249E-06           0.000165513043092049 -6.78112930984705 0.999835781481788 -0.00135215786267678 0.999835781272201 -0.00135207988687561 0.00016551087675342 -6.77575530728096 
! Gamma         0                0                0                0                
! Port Impedance         50               0                50               0                
1.51356124843621E-06           0.000165484018345839 -6.69756829219666 0.999835781482211 -0.00134002379712125 0.999835781273137 -0.00133994541234661 0.000165481894779871 -6.69224843208263 
! Gamma         0                0                0                0                
! Port Impedance         50               0                50               0                
1.52522295653902E-06           0.000165455391906901 -6.61442638113145 0.999835781482487 -0.00132797721269235 0.99983578127408 -0.00132789847576484 0.000165453310550662 -6.6091603665123 
! Gamma         0                0                0                0                
! Port Impedance         50               0                50               0                
1.53697451593527E-06           0.000165427157579517 -6.53170051042927 0.999835781482616 -0.00131601759529028 0.999835781275031 -0.00131593856432501 0.000165425117878836 -6.52648804522605 
! Gamma         0                0                0                0                
! Port Impedance         50               0                50               0                
1.54881661891248E-06           0.000165399309264341 -6.44938765171842 0.999835781482598 -0.0013041444403644 0.99983578127599 -0.0013040651748007 0.000165397310673679 -6.44422844072034 
! Gamma         0                0                0                0                
! Port Impedance         50               0                50               0                
1.56074996309211E-06           0.000165371840957419 -6.36748481518063 0.999835781482434 -0.00129235725298171 0.999835781276956 -0.00129227781361324 0.000165369882939739 -6.36237856403418 
! Gamma         0                0                0                0                
! Port Impedance         50               0                50               0                
1.57277525147067E-06           0.000165344746749237 -6.28598905026268 0.999835781482122 -0.00128065554789787 0.999835781277929 -0.00128057599690337 0.000165342828775872 -6.28093546545976 
! Gamma         0                0                0                0                
! Port Impedance         50               0                50               0                
1.58489319246111E-06           0.000165318020823786 -6.20489744639753 0.999835781481663 -0.00126903884963103 0.99983578127891 -0.00126895925060547 0.000165316142374316 -6.19989623526271 
! Gamma         0                0                0                0                
! Port Impedance         50               0                50               0                
1.5971044999346E-06            0.000165291657457661 -6.12420713373459 0.999835781481057 -0.00125750669253827 0.999835781279899 -0.0012574271105247 0.000165289818019785 -6.11925800441148 
! Gamma         0                0                0                0                
! Port Impedance         50               0                50               0                
1.60940989326253E-06           0.000165265651019175 -6.04391528388062 0.999835781480304 -0.00124605862089504 0.999835781280894 -0.00124597912241685 0.000165263850088587 -6.03901794531732 
! Gamma         0                0                0                0                
! Port Impedance         50               0                50               0                
1.62181009735893E-06           0.000165239995967509 -5.96401911065049 0.999835781479404 -0.0012346941889773 0.999835781281897 -0.00123461484207108 0.000165238233047771 -5.95917327258413 
! Gamma         0                0                0                0                
! Port Impedance         50               0                50               0                
1.63430584272314E-06           0.000165214686851877 -5.88451587082916 0.999835781478357 -0.00122341296114662 0.999835781282906 -0.00122333383539562 0.000165212961454297 -5.8797212437696 
! Gamma         0                0                0                0                
! Port Impedance         50               0                50               0                
1.64689786548287E-06           0.000165189718310722 -5.8054028649445 0.999835781477161 -0.00121221451193822 0.999835781283922 -0.00121213567850629 0.000165188029954233 -5.80065916015707 
! Gamma         0                0                0                0                
! Port Impedance         50               0                50               0                
1.65958690743756E-06           0.000165165085070936 -5.72667743805191 0.999835781475818 -0.00120109842615204 0.999835781284946 -0.00120101995781819 0.000165163433281973 -5.72198436753929 
! Gamma         0                0                0                0                
! Port Impedance         50               0                50               0                
1.67237371610208E-06           0.000165140781947105 -5.64833698053096 0.999835781474326 -0.00119006429894679 0.999835781285975 -0.00118998627014031 0.000165139166259482 -5.64369425701413 
! Gamma         0                0                0                0                
! Port Impedance         50               0                50               0                
1.68525904475075E-06           0.000165116803840779 -5.5703789288944 0.999835781472686 -0.00117911173593725 0.999835781287011 -0.00117903422277339 0.000165115223795571 -5.56578626579281 
! Gamma         0                0                0                0                
! Port Impedance         50               0                50               0                
1.69824365246174E-06           0.000165093145739768 -5.49280076661   0.999835781470897 -0.00116824035329456 0.999835781288053 -0.00116816343361081 0.000165091600885193 -5.48825787802067 
! Gamma         0                0                0                0                
! Port Impedance         50               0                50               0                
1.71132830416178E-06           0.000165069802717465 -5.41560002493562 0.999835781468959 -0.00115744977784985 0.999835781289101 -0.00115737353124279 0.000165068292608763 -5.41110662561151 
! Gamma         0                0                0                0                
! Port Impedance         50               0                50               0                
1.7245137706712E-06            0.000165046769932193 -5.33877428376814 0.999835781466871 -0.00114673964720113 0.999835781290155 -0.00114666415506389 0.000165045294131509 -5.33433008909553 
! Gamma         0                0                0                0                
! Port Impedance         50               0                50               0                
1.73780082874938E-06           0.000165024042626579 -5.26232117250611 0.999835781464633 -0.00113610960982342 0.999835781291215 -0.0011360349553837 0.000165022600702845 -5.25792589848112 
! Gamma         0                0                0                0                
! Port Impedance         50               0                50               0                
1.75119026114046E-06           0.000165001616126953 -5.18623837092744 0.999835781462245 -0.00112555932518243 0.99983578129228 -0.00112548559354114 0.000165000207655772 -5.1818917341317 
! Gamma         0                0                0                0                
! Port Impedance         50               0                50               0                
1.7646828566195E-06            0.000164979485842776 -5.11052361008148 0.999835781459705 -0.00111508846385152 0.99983578129335 -0.001115015742022 0.000164978110406305 -5.10622532765683 
! Gamma         0                0                0                0                
! Port Impedance         50               0                50               0                
1.77827941003892E-06           0.000164957647266089 -5.03517467319697 0.999835781457014 -0.00110469670763227 0.999835781294426 -0.00110462508458012 0.000164956304452927 -5.03092446281929 
! Gamma         0                0                0                0                
! Port Impedance         50               0                50               0                
1.79198072237533E-06           0.000164936095970997 -4.96018939660555 0.99983578145417 -0.00109438374967859 0.999835781295506 -0.00109431331636211 0.000164934785376065 -4.95598697645775 
! Gamma         0                0                0                0                
! Port Impedance         50               0                50               0                
1.80578760077672E-06           0.000164914827613172 -4.88556567068166 0.999835781451173 -0.00108414929462445 0.99983578129659 -0.0010840801440357 0.0001649135488376 -4.8814107594257 
! Gamma         0                0                0                0                